<?xml version="1.0"?>
<VTKFile type="UnstructuredGrid">
<UnstructuredGrid>
<Piece NumberOfPoints="18" NumberOfCells="4">
<Points>
<DataArray NumberOfComponents="3" type="Float32" format="ascii" >
 0.00000000e+000
 1.00000000e-001
-1.00000000e+000
 0.00000000e+000
 1.00000000e-001
-5.00000000e-001
 0.00000000e+000
 1.00000000e-001
-1.66533454e-017
 5.00000000e-001
 1.00000000e-001
 0.00000000e+000
 1.00000000e+000
 1.00000000e-001
 0.00000000e+000
 1.00000000e+000
 1.00000000e-001
-5.00000000e-001
 1.00000000e+000
 1.00000000e-001
-1.00000000e+000
 5.00000000e-001
 1.00000000e-001
-1.00000000e+000
 5.00000000e-001
 1.00000000e-001
-5.00000000e-001
 1.66533454e-017
 0.00000000e+000
-1.00000000e+000
 0.00000000e+000
 0.00000000e+000
-5.00000000e-001
 2.22044605e-016
 0.00000000e+000
 0.00000000e+000
 5.00000000e-001
 0.00000000e+000
-1.00000000e+000
 1.00000000e+000
 0.00000000e+000
-1.00000000e+000
 1.00000000e+000
 0.00000000e+000
-5.00000000e-001
 1.00000000e+000
 0.00000000e+000
 0.00000000e+000
 5.00000000e-001
 0.00000000e+000
 0.00000000e+000
 5.00000000e-001
 0.00000000e+000
-5.00000000e-001
</DataArray>
</Points>
<Cells>
<DataArray Name="connectivity" type="Int32" format="ascii" >
3	2	1	8	16	11	10	17	
8	1	0	7	17	10	9	12	
4	3	8	5	15	16	17	14	
5	8	7	6	14	17	12	13	
</DataArray>
<DataArray Name="offsets" type="Int32" format="ascii" >
8
16
24
32
</DataArray>
<DataArray Name="types" type="UInt8" format="ascii" >
12
12
12
12

</DataArray>
</Cells>
<PointData Scalars="scalars" format="ascii">
<DataArray Name="" type="Float32" format="ascii" >
1.25000000e-001
1.25000000e-001
1.25000000e-001
3.75000000e-001
6.25000000e-001
6.25000000e-001
6.25000000e-001
3.75000000e-001
3.75000000e-001
1.25000000e-001
1.25000000e-001
